 Gaussian 16, Revision C.01,
 Gaussian 16:  ES64L-G16RevC.01  3-Jul-2019

 -------------------
 #P PM6=(print,zero)
 -------------------

 ---------
 the title
 ---------
 Symbolic Z-matrix:
 Charge =  0 Multiplicity = 1

                         Standard orientation:
 ---------------------------------------------------------------------
 Center     Atomic      Atomic             Coordinates (Angstroms)
 Number     Number       Type             X           Y           Z
 ---------------------------------------------------------------------
      1          6           0        0.000000   -0.000000    0.000000
      2          1           0        0.625867    0.625867    0.625867
      3          1           0       -0.625867   -0.625867    0.625867
      4          1           0       -0.625867    0.625867   -0.625867
      5          1           0        0.625867   -0.625867   -0.625867
 ---------------------------------------------------------------------

 SCF Done:  E(RPM6) = -0.195847985171E-01 A.U. after    8 cycles

 The electronic state is 1-A1.
 Alpha  occ. eigenvalues --   -0.92685  -0.50270  -0.50270  -0.50270
 Alpha virt. eigenvalues --    0.22118   0.22118   0.22118   0.26676

 Mulliken charges:
               1
     1  C   -0.655168
     2  H    0.163792
     3  H    0.163792
     4  H    0.163792
     5  H    0.163792
 Sum of Mulliken charges =   0.00000

 Dipole moment (field-independent basis, Debye):
    X=              0.0000    Y=              0.0000    Z=             -0.0000  Tot=              0.0000
 N-N= 1.446896624099D+01 E-N=-1.375162154170D+01  KE=-1.035556118766D+01
 Symmetry A    KE=-3.284715515926D+00
 Symmetry B1   KE=-2.356948557246D+00
 Symmetry B2   KE=-2.356948557246D+00
 Symmetry B3   KE=-2.356948557246D+00
 Leave Link  601 at Tue Jul 27 18:53:17 2021, MaxMem=   209715200 cpu:               0.1 elap:               0.0
 (Enter /usr/local/apps/gaussian/g16-c01-avx2//g16/l9999.exe)
 Unable to Open any file for archive entry.
 1\1\GINC-CN107\SP\RPM6\ZDO\C1H4\R2518\27-Jul-2021\0\\#P PM6=(print,zer
 o)\\the title\\0,1\C,0,0.,0.,-0.0000000318\H,0,0.,0.,1.0840336982\H,0,

 Normal termination of Gaussian 16 at Tue Jul 27 18:53:17 2021.
